ITEM: TIMESTEP
0
ITEM: NUMBER OF ATOMS
6
ITEM: BOX BOUNDS pp pp pp
0 5
0 5
0 5
ITEM: ATOMS id type mol x y z
1 0 1 0.474595 2.024077 0.183953
2 0 1 0.544844 1.716071 4.796400
3 0 1 0.615094 1.408065 4.408847
4 0 1 0.685344 1.100059 4.021294
5 0 1 0.755594 0.792053 3.633741
6 0 1 0.825843 0.484047 3.246188
